;;
;; Generated by CHARMM-GUI FF-Converter
;;
;; Correspondance:
;; jul316@lehigh.edu or wonpil@lehigh.edu
;;
;; CHARMM FF in GROMACS format
;;


[ defaults ]
; nbfunc	comb-rule	gen-pairs	fudgeLJ	fudgeQQ
1	2	yes	1.000000	1.000000

[ atomtypes ]
; name	at.num	mass	charge	ptype	sigma	epsilon	;	sigma_14	epsilon_14
       H     1     1.0080      0.310     A    4.00013524445e-02    1.924640e-01 
     HA2     1     1.0080      0.090     A    2.38760856462e-01    1.422560e-01 
     HB1     1     1.0080      0.090     A    2.35197261589e-01    9.204800e-02 
     HB2     1     1.0080      0.090     A    2.38760856462e-01    1.171520e-01 
      HC     1     1.0080      0.330     A    4.00013524445e-02    1.924640e-01 
      HT     1     1.0080      0.417     A    4.00013524445e-02    1.924640e-01 
       C     6    12.0110      0.510     A    3.56359487256e-01    4.602400e-01 
      CC     6    12.0110      0.340     A    3.56359487256e-01    2.928800e-01 
     CP1     6    12.0110      0.020     A    4.05358916754e-01    8.368000e-02 ;   3.38541512893e-01    4.184000e-02 
     CP2     6    12.0110     -0.180     A    3.87540942391e-01    2.301200e-01 ;   3.38541512893e-01    4.184000e-02 
     CP3     6    12.0110      0.000     A    3.87540942391e-01    2.301200e-01 ;   3.38541512893e-01    4.184000e-02 
     CT2     6    12.0110      0.130     A    3.58141284692e-01    2.343040e-01 ;   3.38541512893e-01    4.184000e-02 
       N     7    14.0070     -0.290     A    3.29632525712e-01    8.368000e-01 ;   3.29632525712e-01    4.184000e-04 
     NH1     7    14.0070     -0.470     A    3.29632525712e-01    8.368000e-01 ;   2.76178602624e-01    8.368000e-01 
     NH3     7    14.0070     -0.300     A    3.29632525712e-01    8.368000e-01 
       O     8    15.9990     -0.510     A    3.02905564168e-01    5.020800e-01 ;   2.49451641079e-01    5.020800e-01 
      OC     8    15.9990     -0.670     A    3.02905564168e-01    5.020800e-01 
      OT     8    15.9994     -0.834     A    3.15057422683e-01    6.363864e-01 

[ bondtypes ]
; i	j	func	b0	Kb
    CP1       C     1  1.490000e-01  2.092000e+05
    CP1      CC     1  1.490000e-01  2.092000e+05
    CP2     CP1     1  1.527000e-01  1.861880e+05
    CP2     CP2     1  1.537000e-01  1.861880e+05
    CP3     CP2     1  1.537000e-01  1.861880e+05
    CT2       C     1  1.490000e-01  2.092000e+05
    HA2     CP2     1  1.111000e-01  2.585712e+05
    HA2     CP3     1  1.111000e-01  2.585712e+05
    HB1     CP1     1  1.080000e-01  2.761440e+05
    HB2     CT2     1  1.080000e-01  2.761440e+05
     HT      HT     1  1.513900e-01  0.000000e+00
     HT      OT     1  9.572000e-02  3.765600e+05
      N       C     1  1.300000e-01  2.175680e+05
      N     CP1     1  1.434000e-01  2.677760e+05
      N     CP3     1  1.455000e-01  2.677760e+05
    NH1       C     1  1.345000e-01  3.096160e+05
    NH1     CT2     1  1.430000e-01  2.677760e+05
    NH1       H     1  9.970000e-02  3.681920e+05
    NH3     CT2     1  1.480000e-01  1.673600e+05
    NH3      HC     1  1.040000e-01  3.372304e+05
      O       C     1  1.230000e-01  5.188160e+05
     OC      CC     1  1.260000e-01  4.393200e+05

[ pairtypes ]
; i	j	func	sigma1-4	epsilon1-4
      H     CP1     1  1.89271432669e-01  8.97368027066e-02 
      H     CP2     1  1.89271432669e-01  8.97368027066e-02 
      H     CP3     1  1.89271432669e-01  8.97368027066e-02 
      H     CT2     1  1.89271432669e-01  8.97368027066e-02 
      H       N     1  1.84816939078e-01  8.97368027066e-03 
      H     NH1     1  1.58089977534e-01  4.01315181871e-01 
      H       O     1  1.44726496762e-01  3.10857403193e-01 
    HA2     CP1     1  2.88651184677e-01  7.71491480186e-02 
    HA2     CP2     1  2.88651184677e-01  7.71491480186e-02 
    HA2     CP3     1  2.88651184677e-01  7.71491480186e-02 
    HA2     CT2     1  2.88651184677e-01  7.71491480186e-02 
    HA2       N     1  2.84196691087e-01  7.71491480186e-03 
    HA2     NH1     1  2.57469729543e-01  3.45021478752e-01 
    HA2       O     1  2.44106248770e-01  2.67252488258e-01 
    HB1     CP1     1  2.86869387241e-01  6.20587489400e-02 
    HB1     CP2     1  2.86869387241e-01  6.20587489400e-02 
    HB1     CP3     1  2.86869387241e-01  6.20587489400e-02 
    HB1     CT2     1  2.86869387241e-01  6.20587489400e-02 
    HB1       N     1  2.82414893650e-01  6.20587489400e-03 
    HB1     NH1     1  2.55687932106e-01  2.77535162457e-01 
    HB1       O     1  2.42324451334e-01  2.14977812437e-01 
    HB2     CP1     1  2.88651184677e-01  7.00117110204e-02 
    HB2     CP2     1  2.88651184677e-01  7.00117110204e-02 
    HB2     CP3     1  2.88651184677e-01  7.00117110204e-02 
    HB2     CT2     1  2.88651184677e-01  7.00117110204e-02 
    HB2       N     1  2.84196691087e-01  7.00117110204e-03 
    HB2     NH1     1  2.57469729543e-01  3.13101890125e-01 
    HB2       O     1  2.44106248770e-01  2.42527681224e-01 
     HC     CP1     1  1.89271432669e-01  8.97368027066e-02 
     HC     CP2     1  1.89271432669e-01  8.97368027066e-02 
     HC     CP3     1  1.89271432669e-01  8.97368027066e-02 
     HC     CT2     1  1.89271432669e-01  8.97368027066e-02 
     HC       N     1  1.84816939078e-01  8.97368027066e-03 
     HC     NH1     1  1.58089977534e-01  4.01315181871e-01 
     HC       O     1  1.44726496762e-01  3.10857403193e-01 
     HT     CP1     1  1.89271432669e-01  8.97368027066e-02 
     HT     CP2     1  1.89271432669e-01  8.97368027066e-02 
     HT     CP3     1  1.89271432669e-01  8.97368027066e-02 
     HT     CT2     1  1.89271432669e-01  8.97368027066e-02 
     HT       N     1  1.84816939078e-01  8.97368027066e-03 
     HT     NH1     1  1.58089977534e-01  4.01315181871e-01 
     HT       O     1  1.44726496762e-01  3.10857403193e-01 
      C     CP1     1  3.47450500075e-01  1.38767581228e-01 
      C     CP2     1  3.47450500075e-01  1.38767581228e-01 
      C     CP3     1  3.47450500075e-01  1.38767581228e-01 
      C     CT2     1  3.47450500075e-01  1.38767581228e-01 
      C       N     1  3.42996006484e-01  1.38767581228e-02 
      C     NH1     1  3.16269044940e-01  6.20587489400e-01 
      C       O     1  3.02905564168e-01  4.80705002262e-01 
     CC     CP1     1  3.47450500075e-01  1.10698234855e-01 
     CC     CP2     1  3.47450500075e-01  1.10698234855e-01 
     CC     CP3     1  3.47450500075e-01  1.10698234855e-01 
     CC     CT2     1  3.47450500075e-01  1.10698234855e-01 
     CC       N     1  3.42996006484e-01  1.10698234855e-02 
     CC     NH1     1  3.16269044940e-01  4.95057556250e-01 
     CC       O     1  3.02905564168e-01  3.83469934154e-01 
    CP1     CP1     1  3.38541512893e-01  4.18400000000e-02 
    CP1     CP2     1  3.38541512893e-01  4.18400000000e-02 
    CP1     CP3     1  3.38541512893e-01  4.18400000000e-02 
    CP1     CT2     1  3.38541512893e-01  4.18400000000e-02 
    CP1       N     1  3.34087019303e-01  4.18400000000e-03 
    CP1     NH1     1  3.07360057758e-01  1.87114168357e-01 
    CP1     NH3     1  3.34087019303e-01  1.87114168357e-01 
    CP1       O     1  2.93996576986e-01  1.44938011577e-01 
    CP1      OC     1  3.20723538531e-01  1.44938011577e-01 
    CP1      OT     1  3.26799467788e-01  1.63176000000e-01 
    CP2     CP2     1  3.38541512893e-01  4.18400000000e-02 
    CP2     CP3     1  3.38541512893e-01  4.18400000000e-02 
    CP2     CT2     1  3.38541512893e-01  4.18400000000e-02 
    CP2       N     1  3.34087019303e-01  4.18400000000e-03 
    CP2     NH1     1  3.07360057758e-01  1.87114168357e-01 
    CP2     NH3     1  3.34087019303e-01  1.87114168357e-01 
    CP2       O     1  2.93996576986e-01  1.44938011577e-01 
    CP2      OC     1  3.20723538531e-01  1.44938011577e-01 
    CP2      OT     1  3.26799467788e-01  1.63176000000e-01 
    CP3     CP3     1  3.38541512893e-01  4.18400000000e-02 
    CP3     CT2     1  3.38541512893e-01  4.18400000000e-02 
    CP3       N     1  3.34087019303e-01  4.18400000000e-03 
    CP3     NH1     1  3.07360057758e-01  1.87114168357e-01 
    CP3     NH3     1  3.34087019303e-01  1.87114168357e-01 
    CP3       O     1  2.93996576986e-01  1.44938011577e-01 
    CP3      OC     1  3.20723538531e-01  1.44938011577e-01 
    CP3      OT     1  3.26799467788e-01  1.63176000000e-01 
    CT2     CT2     1  3.38541512893e-01  4.18400000000e-02 
    CT2       N     1  3.34087019303e-01  4.18400000000e-03 
    CT2     NH1     1  3.07360057758e-01  1.87114168357e-01 
    CT2     NH3     1  3.34087019303e-01  1.87114168357e-01 
    CT2       O     1  2.93996576986e-01  1.44938011577e-01 
    CT2      OC     1  3.20723538531e-01  1.44938011577e-01 
    CT2      OT     1  3.26799467788e-01  1.63176000000e-01 
      N       N     1  3.29632525712e-01  4.18400000000e-04 
      N     NH1     1  3.02905564168e-01  1.87114168357e-02 
      N     NH3     1  3.29632525712e-01  1.87114168357e-02 
      N       O     1  2.89542083396e-01  1.44938011577e-02 
      N      OC     1  3.16269044940e-01  1.44938011577e-02 
      N      OT     1  3.22344974198e-01  1.63176000000e-02 
    NH1     NH1     1  2.76178602624e-01  8.36800000000e-01 
    NH1     NH3     1  3.02905564168e-01  8.36800000000e-01 
    NH1       O     1  2.62815121851e-01  6.48182492821e-01 
    NH1      OC     1  2.89542083396e-01  6.48182492821e-01 
    NH1      OT     1  2.95618012653e-01  7.29745256593e-01 
    NH3       O     1  2.89542083396e-01  6.48182492821e-01 
      O       O     1  2.49451641079e-01  5.02080000000e-01 
      O      OC     1  2.76178602624e-01  5.02080000000e-01 
      O      OT     1  2.82254531881e-01  5.65258245152e-01 

[ angletypes ]
; i	j	k	func	th0	Kth	s0	Kub
    CP1       N       C     5  1.1700000e+02  5.0208000e+02  0.0000000e+00  0.0000000e+00
    CP2     CP1       C     5  1.1230000e+02  4.3513600e+02  0.0000000e+00  0.0000000e+00
    CP2     CP1      CC     5  1.1230000e+02  4.3513600e+02  0.0000000e+00  0.0000000e+00
    CP2     CP2     CP1     5  1.0850000e+02  5.8576000e+02  0.0000000e+00  0.0000000e+00
    CP3     CP2     CP2     5  1.0850000e+02  5.8576000e+02  0.0000000e+00  0.0000000e+00
    CP3       N       C     5  1.1700000e+02  5.0208000e+02  0.0000000e+00  0.0000000e+00
    CP3       N     CP1     5  1.1420000e+02  8.3680000e+02  0.0000000e+00  0.0000000e+00
    CT2     NH1       C     5  1.2000000e+02  4.1840000e+02  0.0000000e+00  0.0000000e+00
      H     NH1       C     5  1.2300000e+02  2.8451200e+02  0.0000000e+00  0.0000000e+00
      H     NH1     CT2     5  1.1700000e+02  2.9288000e+02  0.0000000e+00  0.0000000e+00
    HA2     CP2     CP1     5  1.1010000e+02  2.7974224e+02  2.1790000e-01  1.8853104e+04
    HA2     CP2     CP2     5  1.1010000e+02  2.2175200e+02  2.1790000e-01  1.8853104e+04
    HA2     CP2     CP3     5  1.1010000e+02  2.2175200e+02  2.1790000e-01  1.8853104e+04
    HA2     CP2     HA2     5  1.0900000e+02  2.9706400e+02  1.8020000e-01  4.5187200e+03
    HA2     CP3     CP2     5  1.1010000e+02  2.2175200e+02  2.1790000e-01  1.8853104e+04
    HA2     CP3     HA2     5  1.0900000e+02  2.9706400e+02  1.8020000e-01  4.5187200e+03
    HB1     CP1       C     5  1.1200000e+02  4.1840000e+02  0.0000000e+00  0.0000000e+00
    HB1     CP1      CC     5  1.1200000e+02  4.1840000e+02  0.0000000e+00  0.0000000e+00
    HB1     CP1     CP2     5  1.1800000e+02  2.9288000e+02  0.0000000e+00  0.0000000e+00
    HB2     CT2       C     5  1.0950000e+02  4.1840000e+02  0.0000000e+00  0.0000000e+00
    HB2     CT2     HB2     5  1.1500000e+02  3.0124800e+02  0.0000000e+00  0.0000000e+00
     HC     NH3     CT2     5  1.0950000e+02  2.5104000e+02  2.0740000e-01  1.6736000e+04
     HC     NH3      HC     5  1.0950000e+02  3.6819200e+02  0.0000000e+00  0.0000000e+00
     HT      OT      HT     5  1.0452000e+02  4.6024000e+02  0.0000000e+00  0.0000000e+00
      N       C     CP1     5  1.1250000e+02  1.6736000e+02  0.0000000e+00  0.0000000e+00
      N       C     CT2     5  1.1250000e+02  1.6736000e+02  0.0000000e+00  0.0000000e+00
      N     CP1       C     5  1.0820000e+02  4.1840000e+02  0.0000000e+00  0.0000000e+00
      N     CP1      CC     5  1.0820000e+02  4.1840000e+02  0.0000000e+00  0.0000000e+00
      N     CP1     CP2     5  1.1080000e+02  5.8576000e+02  0.0000000e+00  0.0000000e+00
      N     CP1     HB1     5  1.1200000e+02  4.0166400e+02  0.0000000e+00  0.0000000e+00
      N     CP3     CP2     5  1.1050000e+02  5.8576000e+02  0.0000000e+00  0.0000000e+00
      N     CP3     HA2     5  1.0800000e+02  4.0166400e+02  0.0000000e+00  0.0000000e+00
    NH1       C     CP1     5  1.1650000e+02  6.6944000e+02  0.0000000e+00  0.0000000e+00
    NH1     CT2       C     5  1.0700000e+02  4.1840000e+02  0.0000000e+00  0.0000000e+00
    NH1     CT2     HB2     5  1.0800000e+02  4.0166400e+02  0.0000000e+00  0.0000000e+00
    NH3     CT2       C     5  1.1000000e+02  3.6568160e+02  0.0000000e+00  0.0000000e+00
    NH3     CT2     HB2     5  1.0750000e+02  4.3095200e+02  0.0000000e+00  0.0000000e+00
      O       C     CP1     5  1.1800000e+02  6.6944000e+02  0.0000000e+00  0.0000000e+00
      O       C     CT2     5  1.2100000e+02  6.6944000e+02  0.0000000e+00  0.0000000e+00
      O       C       N     5  1.2250000e+02  6.6944000e+02  0.0000000e+00  0.0000000e+00
      O       C     NH1     5  1.2250000e+02  6.6944000e+02  0.0000000e+00  0.0000000e+00
     OC      CC     CP1     5  1.1800000e+02  3.3472000e+02  2.3880000e-01  4.1840000e+04
     OC      CC      OC     5  1.2400000e+02  8.3680000e+02  2.2250000e-01  5.8576000e+04

[ dihedraltypes ]
; i	j	k	l	func	phi0	Kphi	mult
      C     CT2     NH1       C     9  1.800000e+02  8.368000e-01      1
      C       N     CP1       C     9  0.000000e+00  3.347200e+00      3
     CC     CP1       N       C     9  0.000000e+00  3.347200e+00      3
    CP1       C       N     CP1     9  1.800000e+02  1.150600e+01      2
    CP1       C       N     CP1     9  0.000000e+00  1.255200e+00      4
    CP2     CP1       N       C     9  0.000000e+00  3.347200e+00      3
    CP2     CP3       N       C     9  1.800000e+02  0.000000e+00      3
    CP2     CP3       N     CP1     9  0.000000e+00  4.184000e-01      3
    CP3       N       C     CP1     9  1.800000e+02  1.150600e+01      2
    CP3       N       C     CP1     9  0.000000e+00  1.255200e+00      4
    CP3       N     CP1       C     9  0.000000e+00  4.184000e-01      3
    CP3       N     CP1      CC     9  0.000000e+00  4.184000e-01      3
    CP3       N     CP1     CP2     9  0.000000e+00  4.184000e-01      3
    CT2       C       N     CP1     9  1.800000e+02  1.150600e+01      2
    CT2       C       N     CP1     9  0.000000e+00  1.255200e+00      4
    CT2       C       N     CP3     9  1.800000e+02  1.150600e+01      2
    CT2       C       N     CP3     9  0.000000e+00  1.255200e+00      4
    CT2     NH1       C     CP1     9  0.000000e+00  6.694400e+00      1
    CT2     NH1       C     CP1     9  1.800000e+02  1.046000e+01      2
      H     NH1       C     CP1     9  1.800000e+02  1.046000e+01      2
      H     NH1     CT2       C     9  0.000000e+00  0.000000e+00      1
    HA2     CP3       N       C     9  1.800000e+02  0.000000e+00      3
    HA2     CP3       N     CP1     9  0.000000e+00  4.184000e-01      3
    HB1     CP1       N       C     9  0.000000e+00  3.347200e+00      3
    HB1     CP1       N     CP3     9  0.000000e+00  4.184000e-01      3
    HB2     CT2     NH1       C     9  0.000000e+00  0.000000e+00      1
    HB2     CT2     NH1       H     9  0.000000e+00  0.000000e+00      1
      N       C     CP1     CP2     9  0.000000e+00  1.673600e+00      1
      N       C     CP1     CP2     9  0.000000e+00  2.510400e+00      2
      N       C     CP1     HB1     9  1.800000e+02  1.673600e+00      1
      N       C     CP1     HB1     9  0.000000e+00  2.510400e+00      2
      N       C     CP1       N     9  0.000000e+00  1.255200e+00      1
      N       C     CP1       N     9  0.000000e+00 -1.255200e+00      4
      N       C     CT2     HB2     9  0.000000e+00  0.000000e+00      1
    NH1       C     CP1     CP2     9  0.000000e+00  1.673600e+00      1
    NH1       C     CP1     CP2     9  0.000000e+00  2.510400e+00      2
    NH1       C     CP1     HB1     9  1.800000e+02  1.673600e+00      1
    NH1       C     CP1     HB1     9  0.000000e+00  2.510400e+00      2
    NH1       C     CP1       N     9  0.000000e+00  1.255200e+00      1
    NH1       C     CP1       N     9  0.000000e+00 -1.255200e+00      4
    NH1     CT2       C       N     9  0.000000e+00  1.673600e+00      1
    NH3     CT2       C       N     9  0.000000e+00  1.673600e+00      1
      O       C     CP1     CP2     9  1.800000e+02  1.673600e+00      1
      O       C     CP1     CP2     9  0.000000e+00  2.510400e+00      2
      O       C     CP1     HB1     9  0.000000e+00  1.673600e+00      1
      O       C     CP1     HB1     9  0.000000e+00  2.510400e+00      2
      O       C     CP1       N     9  0.000000e+00 -1.255200e+00      4
      O       C     CT2     HB2     9  0.000000e+00  0.000000e+00      1
      O       C     CT2     NH1     9  0.000000e+00  0.000000e+00      1
      O       C     CT2     NH3     9  0.000000e+00  0.000000e+00      1
      O       C       N     CP1     9  1.800000e+02  1.150600e+01      2
      O       C       N     CP1     9  0.000000e+00  1.255200e+00      4
      O       C       N     CP3     9  1.800000e+02  1.150600e+01      2
      O       C       N     CP3     9  0.000000e+00  1.255200e+00      4
      O       C     NH1     CT2     9  1.800000e+02  1.046000e+01      2
      O       C     NH1       H     9  1.800000e+02  1.046000e+01      2
     OC      CC     CP1     CP2     9  0.000000e+00  6.694400e-01      3
     OC      CC     CP1     HB1     9  0.000000e+00  6.694400e-01      3
     OC      CC     CP1       N     9  0.000000e+00  6.694400e-01      3
      X     CP1     CP2       X     9  0.000000e+00  5.857600e-01      3
      X     CP2     CP2       X     9  0.000000e+00  6.694400e-01      3
      X     CP3     CP2       X     9  0.000000e+00  5.857600e-01      3
      X     CT2     NH3       X     9  0.000000e+00  4.184000e-01      3

[ dihedraltypes ]
; i	j	k	l	func	q0	Kq
      N       C     CP1     CP3     2  0.000000e+00  0.000000e+00
    NH1       X       X       H     2  0.000000e+00  1.673600e+02
      O       X       X       C     2  0.000000e+00  1.004160e+03
     OC       X       X      CC     2  0.000000e+00  8.033280e+02

[ cmaptypes ]
; i j k l m
C N CP1 C N 1 24 24\
12.441124 14.008869 12.815174 8.842466 4.353452 3.224190 3.285277 1.101647 -2.004136 -2.439272\
-1.940539 -1.224238 0.000000 1.084074 0.740986 -0.632621 -0.725924 0.885753 1.459798 -0.567350\
-3.974800 -5.257614 -1.225075 6.527040 23.740434 25.151698 23.274337 18.691183 14.187107 12.588819\
11.918542 9.670061 6.951298 6.143786 4.781057 6.014082 8.841629 11.713108 12.506394 12.003896\
12.619362 13.926444 13.526454 10.659158 6.891885 5.952577 10.531546 18.157723 28.253715 29.175869\
26.962951 22.550923 18.571102 16.928464 16.036435 14.403002 13.821844 12.593840 11.874610 13.230645\
15.808407 18.253955 19.261462 19.021301 19.673586 20.238845 19.035108 16.106726 12.967053 12.685051\
16.987877 23.534163 31.914715 34.113826 30.721020 24.658404 20.079853 18.549346 19.043476 18.588675\
9.297685 3.248039 3.305360 9.005223 16.455254 22.070182 24.396067 25.056302 23.382284 21.802824\
20.576912 17.958146 14.625172 14.433963 19.320457 26.408153 33.955670 35.468605 32.443991 27.551640\
23.170574 20.770631 20.622936 18.498301 9.774242 5.262635 7.402751 14.057822 20.995312 25.336212\
26.014438 23.958002 23.063045 24.351717 23.918673 20.385703 17.015491 17.131806 22.112022 29.001396\
38.700745 39.676872 36.269004 31.485855 29.301389 28.595966 28.543666 22.123318 13.893390 11.047015\
14.496723 21.339655 27.353318 28.809350 24.442928 21.960561 23.180197 27.833642 30.110993 27.720674\
23.891058 23.353833 27.829876 34.278675 39.060150 38.526272 35.834286 33.514677 32.991258 34.359845\
36.556026 35.267354 30.570396 27.088053 27.829039 31.315985 34.289135 34.706280 30.991725 27.321102\
26.116528 26.055860 26.557103 26.985545 26.797265 27.527791 30.926873 35.859809 45.836557 47.929394\
46.749087 43.633681 42.101082 42.026188 38.825846 29.141978 22.432516 21.349697 26.223638 32.934774\
33.513003 29.725228 27.683018 28.173801 31.396736 36.253105 38.839235 36.802046 32.938540 31.850282\
35.556050 41.396496 35.241414 35.686173 36.017964 38.937978 42.841650 46.132366 48.161187 38.842164\
31.656144 27.717326 29.449921 34.402522 36.762298 35.614208 33.905044 33.422629 34.279094 34.689544\
33.704630 31.115571 27.831131 26.430328 28.461660 32.410519 28.924829 33.210082 36.027587 38.980654\
39.281484 39.364746 36.939699 30.534414 22.829578 19.843457 24.238330 29.785059 31.653634 31.792124\
31.123521 31.432300 32.961970 33.815925 31.977057 26.444972 19.582794 16.026812 17.638907 22.740877\
22.872673 29.773344 37.274419 34.924685 31.018084 29.484648 25.236214 17.543930 11.191363 12.651161\
18.766495 22.809913 26.003142 26.872158 26.063391 25.903562 27.149558 27.808538 24.406946 15.695439\
7.195643 4.455542 8.183067 16.153587 12.809316 23.446299 50.959028 26.339117 22.273106 20.194076\
15.504230 10.298916 9.588054 13.162446 14.903826 18.592022 22.332100 23.969299 23.827043 23.604454\
24.866767 25.811096 19.913748 10.750370 5.678106 6.986443 13.440263 21.053470 33.831406 33.685802\
21.018742 14.438147 11.866242 9.173420 6.552981 6.093159 8.532431 8.138717 9.156266 12.222719\
14.508020 14.826004 14.118908 14.528103 17.028462 15.127670 8.711925 4.010782 3.316238 6.251733\
11.693862 20.305370 27.779668 21.662242 13.607623 8.170097 4.512026 3.716647 6.298594 10.218583\
9.115262 6.604862 7.436642 10.022354 11.799717 11.695117 11.139482 12.205146 10.719826 6.518254\
5.532503 6.825778 8.582221 10.692630 12.715594 20.564360 31.584179 21.319572 11.493448 3.996557\
1.859788 5.517441 11.436127 13.485869 10.734052 8.999366 10.018170 12.298031 13.664944 13.430640\
13.026466 10.423599 4.093207 3.411215 6.370977 8.600630 9.204382 9.738678 14.536053 33.379115\
0.000000 0.000000 0.000000 0.000000 0.000000 0.000000 0.000000 0.000000 0.000000 0.000000\
0.000000 0.000000 0.000000 0.000000 0.000000 0.000000 0.000000 0.000000 0.000000 0.000000\
0.000000 0.000000 0.000000 0.000000 0.000000 0.000000 0.000000 0.000000 0.000000 0.000000\
0.000000 0.000000 0.000000 0.000000 0.000000 0.000000 0.000000 0.000000 0.000000 0.000000\
0.000000 0.000000 0.000000 0.000000 0.000000 0.000000 0.000000 0.000000 0.000000 0.000000\
0.000000 0.000000 0.000000 0.000000 0.000000 0.000000 0.000000 0.000000 0.000000 0.000000\
0.000000 0.000000 0.000000 0.000000 0.000000 0.000000 0.000000 0.000000 0.000000 0.000000\
0.000000 0.000000 0.000000 0.000000 0.000000 0.000000 0.000000 0.000000 0.000000 0.000000\
0.000000 0.000000 0.000000 0.000000 0.000000 0.000000 0.000000 0.000000 0.000000 0.000000\
0.000000 0.000000 0.000000 0.000000 0.000000 0.000000 0.000000 0.000000 0.000000 0.000000\
0.000000 0.000000 0.000000 0.000000 0.000000 0.000000 0.000000 0.000000 0.000000 0.000000\
0.000000 0.000000 0.000000 0.000000 0.000000 0.000000 0.000000 0.000000 0.000000 0.000000\
0.000000 0.000000 0.000000 0.000000 0.000000 0.000000 0.000000 0.000000 0.000000 0.000000\
0.000000 0.000000 0.000000 0.000000 0.000000 0.000000 0.000000 0.000000 0.000000 0.000000\
0.000000 0.000000 0.000000 0.000000 0.000000 0.000000 0.000000 0.000000 0.000000 0.000000\
0.000000 0.000000 0.000000 0.000000 0.000000 0.000000 0.000000 0.000000 0.000000 0.000000\
0.000000 0.000000 0.000000 0.000000 0.000000 0.000000 0.000000 0.000000 0.000000 0.000000\
0.000000 0.000000 0.000000 0.000000 0.000000 0.000000 0.000000 0.000000 0.000000 0.000000\
0.000000 0.000000 0.000000 0.000000 0.000000 0.000000 0.000000 0.000000 0.000000 0.000000\
0.000000 0.000000 0.000000 0.000000 0.000000 0.000000 0.000000 0.000000 0.000000 0.000000\
0.000000 0.000000 0.000000 0.000000 0.000000 0.000000 0.000000 0.000000 0.000000 0.000000\
0.000000 0.000000 0.000000 0.000000 0.000000 0.000000

C N CP1 C NH1 1 24 24\
12.441124 14.008869 12.815174 8.842466 4.353452 3.224190 3.285277 1.101647 -2.004136 -2.439272\
-1.940539 -1.224238 0.000000 1.084074 0.740986 -0.632621 -0.725924 0.885753 1.459798 -0.567350\
-3.974800 -5.257614 -1.225075 6.527040 23.740434 25.151698 23.274337 18.691183 14.187107 12.588819\
11.918542 9.670061 6.951298 6.143786 4.781057 6.014082 8.841629 11.713108 12.506394 12.003896\
12.619362 13.926444 13.526454 10.659158 6.891885 5.952577 10.531546 18.157723 28.253715 29.175869\
26.962951 22.550923 18.571102 16.928464 16.036435 14.403002 13.821844 12.593840 11.874610 13.230645\
15.808407 18.253955 19.261462 19.021301 19.673586 20.238845 19.035108 16.106726 12.967053 12.685051\
16.987877 23.534163 31.914715 34.113826 30.721020 24.658404 20.079853 18.549346 19.043476 18.588675\
9.297685 3.248039 3.305360 9.005223 16.455254 22.070182 24.396067 25.056302 23.382284 21.802824\
20.576912 17.958146 14.625172 14.433963 19.320457 26.408153 33.955670 35.468605 32.443991 27.551640\
23.170574 20.770631 20.622936 18.498301 9.774242 5.262635 7.402751 14.057822 20.995312 25.336212\
26.014438 23.958002 23.063045 24.351717 23.918673 20.385703 17.015491 17.131806 22.112022 29.001396\
38.700745 39.676872 36.269004 31.485855 29.301389 28.595966 28.543666 22.123318 13.893390 11.047015\
14.496723 21.339655 27.353318 28.809350 24.442928 21.960561 23.180197 27.833642 30.110993 27.720674\
23.891058 23.353833 27.829876 34.278675 39.060150 38.526272 35.834286 33.514677 32.991258 34.359845\
36.556026 35.267354 30.570396 27.088053 27.829039 31.315985 34.289135 34.706280 30.991725 27.321102\
26.116528 26.055860 26.557103 26.985545 26.797265 27.527791 30.926873 35.859809 45.836557 47.929394\
46.749087 43.633681 42.101082 42.026188 38.825846 29.141978 22.432516 21.349697 26.223638 32.934774\
33.513003 29.725228 27.683018 28.173801 31.396736 36.253105 38.839235 36.802046 32.938540 31.850282\
35.556050 41.396496 35.241414 35.686173 36.017964 38.937978 42.841650 46.132366 48.161187 38.842164\
31.656144 27.717326 29.449921 34.402522 36.762298 35.614208 33.905044 33.422629 34.279094 34.689544\
33.704630 31.115571 27.831131 26.430328 28.461660 32.410519 28.924829 33.210082 36.027587 38.980654\
39.281484 39.364746 36.939699 30.534414 22.829578 19.843457 24.238330 29.785059 31.653634 31.792124\
31.123521 31.432300 32.961970 33.815925 31.977057 26.444972 19.582794 16.026812 17.638907 22.740877\
22.872673 29.773344 37.274419 34.924685 31.018084 29.484648 25.236214 17.543930 11.191363 12.651161\
18.766495 22.809913 26.003142 26.872158 26.063391 25.903562 27.149558 27.808538 24.406946 15.695439\
7.195643 4.455542 8.183067 16.153587 12.809316 23.446299 50.959028 26.339117 22.273106 20.194076\
15.504230 10.298916 9.588054 13.162446 14.903826 18.592022 22.332100 23.969299 23.827043 23.604454\
24.866767 25.811096 19.913748 10.750370 5.678106 6.986443 13.440263 21.053470 33.831406 33.685802\
21.018742 14.438147 11.866242 9.173420 6.552981 6.093159 8.532431 8.138717 9.156266 12.222719\
14.508020 14.826004 14.118908 14.528103 17.028462 15.127670 8.711925 4.010782 3.316238 6.251733\
11.693862 20.305370 27.779668 21.662242 13.607623 8.170097 4.512026 3.716647 6.298594 10.218583\
9.115262 6.604862 7.436642 10.022354 11.799717 11.695117 11.139482 12.205146 10.719826 6.518254\
5.532503 6.825778 8.582221 10.692630 12.715594 20.564360 31.584179 21.319572 11.493448 3.996557\
1.859788 5.517441 11.436127 13.485869 10.734052 8.999366 10.018170 12.298031 13.664944 13.430640\
13.026466 10.423599 4.093207 3.411215 6.370977 8.600630 9.204382 9.738678 14.536053 33.379115\
0.000000 0.000000 0.000000 0.000000 0.000000 0.000000 0.000000 0.000000 0.000000 0.000000\
0.000000 0.000000 0.000000 0.000000 0.000000 0.000000 0.000000 0.000000 0.000000 0.000000\
0.000000 0.000000 0.000000 0.000000 0.000000 0.000000 0.000000 0.000000 0.000000 0.000000\
0.000000 0.000000 0.000000 0.000000 0.000000 0.000000 0.000000 0.000000 0.000000 0.000000\
0.000000 0.000000 0.000000 0.000000 0.000000 0.000000 0.000000 0.000000 0.000000 0.000000\
0.000000 0.000000 0.000000 0.000000 0.000000 0.000000 0.000000 0.000000 0.000000 0.000000\
0.000000 0.000000 0.000000 0.000000 0.000000 0.000000 0.000000 0.000000 0.000000 0.000000\
0.000000 0.000000 0.000000 0.000000 0.000000 0.000000 0.000000 0.000000 0.000000 0.000000\
0.000000 0.000000 0.000000 0.000000 0.000000 0.000000 0.000000 0.000000 0.000000 0.000000\
0.000000 0.000000 0.000000 0.000000 0.000000 0.000000 0.000000 0.000000 0.000000 0.000000\
0.000000 0.000000 0.000000 0.000000 0.000000 0.000000 0.000000 0.000000 0.000000 0.000000\
0.000000 0.000000 0.000000 0.000000 0.000000 0.000000 0.000000 0.000000 0.000000 0.000000\
0.000000 0.000000 0.000000 0.000000 0.000000 0.000000 0.000000 0.000000 0.000000 0.000000\
0.000000 0.000000 0.000000 0.000000 0.000000 0.000000 0.000000 0.000000 0.000000 0.000000\
0.000000 0.000000 0.000000 0.000000 0.000000 0.000000 0.000000 0.000000 0.000000 0.000000\
0.000000 0.000000 0.000000 0.000000 0.000000 0.000000 0.000000 0.000000 0.000000 0.000000\
0.000000 0.000000 0.000000 0.000000 0.000000 0.000000 0.000000 0.000000 0.000000 0.000000\
0.000000 0.000000 0.000000 0.000000 0.000000 0.000000 0.000000 0.000000 0.000000 0.000000\
0.000000 0.000000 0.000000 0.000000 0.000000 0.000000 0.000000 0.000000 0.000000 0.000000\
0.000000 0.000000 0.000000 0.000000 0.000000 0.000000 0.000000 0.000000 0.000000 0.000000\
0.000000 0.000000 0.000000 0.000000 0.000000 0.000000 0.000000 0.000000 0.000000 0.000000\
0.000000 0.000000 0.000000 0.000000 0.000000 0.000000

C NH1 CT2 C N 1 24 24\
0.984704 0.762743 0.741405 1.660211 3.595730 6.232905 8.755020 9.613577 7.567182 2.912901\
-2.356847 -5.994417 -4.247178 5.967639 -2.361031 2.912901 7.565509 9.630313 8.755438 6.230394\
3.596148 1.660630 0.740150 0.763162 0.084098 -0.852699 -1.128425 0.059413 2.597427 5.825802\
8.561301 9.155429 7.045438 2.880684 -1.563561 -2.943444 3.505355 15.497536 -3.054738 2.485714\
7.167610 9.229067 8.478458 6.400683 4.298642 2.609979 1.457706 0.764835 -2.232582 -3.378162\
-3.366446 -1.589083 1.528415 4.886912 6.865944 6.770130 5.448405 2.573578 0.274889 3.089884\
12.382548 -8.521134 -3.910366 1.706654 6.347128 8.304403 7.669690 6.004877 4.165590 2.352245\
0.630110 -0.874456 -5.056364 -5.980610 -5.519533 -3.420420 -0.470282 1.901210 3.086118 3.678991\
3.556818 2.804535 3.947604 -11.092621 -11.838210 -9.201034 -4.458889 1.169846 5.531248 6.980167\
6.365119 4.995278 3.202015 1.029264 -1.320052 -3.444269 -7.485594 -8.223652 -7.785169 -6.058014\
-3.750956 -1.677784 -0.063178 1.344319 2.655166 4.084839 -8.273860 -12.063309 -11.918124 -8.944974\
-4.017895 1.291601 4.594450 5.210335 4.742982 3.689451 1.875269 -0.643918 -3.446361 -5.875591\
-9.400193 -10.405608 -10.349961 -8.935350 -6.601097 -4.102830 -1.795354 0.605425 3.071056 -3.842167\
-9.619853 -12.059125 -11.165422 -7.728266 -3.011643 0.447688 2.075264 2.315844 2.444711 2.066896\
0.411287 -2.216683 -5.179374 -7.698978 -11.929002 -13.309722 -13.386708 -11.653695 -8.595191 -5.200294\
-1.993676 1.205410 -0.189535 -6.152990 -10.706019 -12.005570 -10.252055 -6.619925 -3.894467 -1.784058\
-0.094977 0.000000 -0.407522 -0.569442 -1.839286 -4.345502 -7.284344 -9.929469 -16.576171 -17.858149\
-17.192056 -14.077905 -9.423205 -4.771434 -0.877803 2.038863 -3.122101 -8.902297 -12.267906 -12.127324\
-9.405214 -7.239994 -4.925405 -1.875269 0.146022 -0.306687 -2.224214 -3.904927 -5.693169 -8.406493\
-11.488009 -14.329782 -22.627072 -22.405738 -19.414178 -13.736909 -7.155477 -1.773179 1.482810 -0.433881\
-6.601097 -11.833607 -13.184621 -11.084253 -9.133672 -7.368861 -4.107433 -0.730945 1.098718 0.164013\
-2.773992 -6.404449 -10.368789 -14.500070 -18.134293 -20.966861 -25.493949 -22.168506 -15.968738 -8.043866\
-0.820733 3.214149 2.378604 -3.478159 -9.806878 -12.707226 -11.144921 -9.167562 -8.463814 -6.018684\
-2.715416 0.322168 1.847236 1.077380 -2.054762 -7.617390 -14.531450 -20.481517 -24.228289 -25.965486\
-22.000413 -15.379526 -6.824564 1.799476 6.261230 1.331349 -2.322538 -7.093972 -10.184693 -9.173838\
-7.076399 -7.907760 -7.148364 -5.047159 -2.374002 0.227191 2.080285 2.508726 -0.715464 -8.943718\
-17.727608 -23.363874 -25.669258 -25.384328 -13.229055 -3.774303 5.993371 -6.078871 -6.530304 -6.968870\
-7.460490 -7.343338 -5.561791 -3.058922 -5.510328 -6.957155 -6.699421 -5.417862 -3.419583 -0.824666\
2.299108 3.558074 -2.885705 -11.798462 -18.380312 -21.386516 -21.780607 -19.475620 0.142402 -9.831814\
-14.276080 -15.146373 -14.438775 -12.031720 -7.480155 -2.264590 1.717323 -1.558540 -4.714740 -6.269515\
-6.730801 -6.269515 -4.714740 -1.558540 1.717323 -2.264590 -7.480155 -12.031720 -14.438775 -15.146373\
-14.276080 -9.831814 -13.231251 -19.475620 -21.780607 -21.386516 -18.380312 -11.798462 -2.885705 3.558074\
2.299108 -0.824666 -3.419583 -5.417862 -6.699421 -6.957155 -5.510328 -3.058922 -5.561791 -7.343338\
-7.460490 -6.968870 -6.530304 -6.078871 5.993371 -3.774303 -22.000392 -25.384328 -25.669258 -23.363874\
-17.727608 -8.943718 -0.715464 2.508726 2.080285 0.227191 -2.374002 -5.047159 -7.148364 -7.907760\
-7.076399 -9.173838 -10.184693 -7.093972 -2.322538 1.331349 6.261230 1.799476 -6.824564 -15.379526\
-25.494367 -25.965486 -24.228289 -20.481517 -14.531450 -7.617390 -2.054762 1.077380 1.847236 0.322168\
-2.715416 -6.018684 -8.463814 -9.167562 -11.144921 -12.707226 -9.806878 -3.478159 2.378604 3.214149\
-0.820733 -8.043866 -15.968738 -22.168506 -22.624980 -20.966861 -18.134293 -14.500070 -10.368789 -6.404449\
-2.773992 0.164013 1.098718 -0.730945 -4.107433 -7.368861 -9.133672 -11.084253 -13.184621 -11.833607\
-6.601097 -0.433881 1.482810 -1.773179 -7.155477 -13.736909 -19.414178 -22.405738 -16.576590 -14.329782\
-11.488009 -8.406493 -5.693169 -3.904927 -2.224214 -0.306687 0.146022 -1.875269 -4.925405 -7.239994\
-9.405214 -12.127324 -12.267906 -8.902297 -3.122101 2.038863 -0.877803 -4.771434 -9.423205 -14.077905\
-17.192056 -17.858149 -11.943228 -9.929469 -7.284344 -4.345502 -1.839286 -0.569442 -0.407522 0.000000\
-0.094977 -1.784058 -3.894467 -6.619925 -10.252055 -12.005570 -10.706019 -6.152990 -0.189535 1.205410\
-1.993676 -5.200294 -8.595191 -11.653695 -13.386708 -13.309722 -9.398938 -7.698978 -5.179374 -2.216683\
0.411287 2.066896 2.444711 2.315844 2.075264 0.447688 -3.011643 -7.728266 -11.165422 -12.059125\
-9.619853 -3.842167 3.071056 0.605425 -1.795354 -4.102830 -6.601097 -8.935350 -10.349961 -10.405608\
-7.484339 -5.875591 -3.446361 -0.643918 1.875269 3.689451 4.742982 5.210335 4.594450 1.291601\
-4.017895 -8.944974 -11.918124 -12.063309 -8.273860 4.084839 2.655166 1.344319 -0.063178 -1.677784\
-3.750956 -6.058014 -7.785169 -8.223652 -5.058038 -3.444269 -1.320052 1.029264 3.202015 4.995278\
6.365119 6.980167 5.531248 1.169846 -4.458889 -9.201034 -11.838210 -11.092621 3.947604 2.804535\
3.556818 3.678991 3.086118 1.901210 -0.470282 -3.420420 -5.519533 -5.980610 -2.231746 -0.874456\
0.630110 2.352245 4.165590 6.004877 7.669690 8.304403 6.347128 1.706654 -3.910366 -8.521134\
12.382548 3.089884 0.274889 2.573578 5.448405 6.770130 6.865944 4.886912 1.528415 -1.589083\
-3.366446 -3.378162 0.083262 0.764835 1.457706 2.609979 4.298642 6.400683 8.478458 9.229067\
7.167610 2.485714 -3.054738 15.497536 3.505355 -2.943444 -1.563561 2.880684 7.045438 9.155429\
8.561301 5.825802 2.597427 0.059413 -1.128425 -0.852699

