;;
;; Generated by CHARMM-GUI FF-Converter
;;
;; Correspondance:
;; jul316@lehigh.edu or wonpil@lehigh.edu
;;
;; AMBER FF in GROMACS format
;;


[ defaults ]
; nbfunc	comb-rule	gen-pairs	fudgeLJ	fudgeQQ
1	2	yes	0.500000	0.833333

[ atomtypes ]
; name	at.num	mass	charge	ptype	sigma	epsilon	;	sigma_14	epsilon_14
      EP     0     0.0000     -1.160     A    1.78179743628e-01    0.000000e+00 
       H     1     1.0080      0.164     A    1.06907846177e-01    6.568880e-02 
      H1     1     1.0080      0.039     A    2.47135304412e-01    6.568880e-02 
      HC     1     1.0080      0.021     A    2.64953278775e-01    6.568880e-02 
      HP     1     1.0080      0.089     A    1.95997717991e-01    6.568880e-02 
      HW     1     1.0080      0.580     A    0.00000000000e+00    0.000000e+00 
       C     6    12.0100      0.616     A    3.39966950842e-01    3.598240e-01 
      CT     6    12.0100      0.019     A    3.39966950842e-01    4.577296e-01 
      CX     6    12.0100     -0.010     A    3.39966950842e-01    4.577296e-01 
      XC     6    12.0100     -0.027     A    3.39966950842e-01    4.577296e-01 
     XC0     6    12.0100     -0.027     A    3.39966950842e-01    4.577296e-01 
     XC1     6    12.0100     -0.027     A    3.39966950842e-01    4.577296e-01 
       N     7    14.0100     -0.255     A    3.24999852378e-01    7.112800e-01 
      N3     7    14.0100      0.294     A    3.24999852378e-01    7.112800e-01 
       O     8    16.0000     -0.572     A    2.95992190115e-01    8.786400e-01 
      O2     8    16.0000     -0.770     A    2.95992190115e-01    8.786400e-01 
      OW     8    16.0000      0.000     A    3.16499965888e-01    9.365466e-01 

[ bondtypes ]
; i	j	func	b0	Kb
      C      CX     1  1.522000e-01  2.652656e+05
      C       N     1  1.335000e-01  4.100320e+05
      C       O     1  1.229000e-01  4.769760e+05
      C      O2     1  1.250000e-01  5.489408e+05
      C      XC     1  1.522000e-01  2.652656e+05
     CT      CT     1  1.526000e-01  2.594080e+05
     CT      H1     1  1.090000e-01  2.845120e+05
     CT      HC     1  1.090000e-01  2.845120e+05
     CT       N     1  1.449000e-01  2.820016e+05
     CX      CT     1  1.526000e-01  2.594080e+05
     CX      H1     1  1.090000e-01  2.845120e+05
     CX      HP     1  1.090000e-01  2.845120e+05
     CX       N     1  1.449000e-01  2.820016e+05
     CX      N3     1  1.471000e-01  3.071056e+05
      H       N     1  1.010000e-01  3.631712e+05
      H      N3     1  1.010000e-01  3.631712e+05
     HW      HW     1  1.513600e-01  4.627504e+05
     OW      EP     1  1.546000e-02  4.627504e+05
     OW      HW     1  9.572000e-02  4.627504e+05
     XC      CT     1  1.526000e-01  2.594080e+05
     XC      H1     1  1.090000e-01  2.845120e+05
     XC       N     1  1.449000e-01  2.820016e+05

[ pairtypes ]
; i	j	func	sigma1-4	epsilon1-4

[ angletypes ]
; i	j	k	func	th0	Kth	s0	Kub
      C      CX      CT     5  1.1110000e+02  5.2718400e+02  0.0000000e+00  0.0000000e+00
      C      CX      H1     5  1.0950000e+02  4.1840000e+02  0.0000000e+00  0.0000000e+00
      C      CX      HP     5  1.0950000e+02  4.1840000e+02  0.0000000e+00  0.0000000e+00
      C      CX       N     5  1.1010000e+02  5.2718400e+02  0.0000000e+00  0.0000000e+00
      C      CX      N3     5  1.1120000e+02  6.6944000e+02  0.0000000e+00  0.0000000e+00
      C       N      CT     5  1.2190000e+02  4.1840000e+02  0.0000000e+00  0.0000000e+00
      C       N      CX     5  1.2190000e+02  4.1840000e+02  0.0000000e+00  0.0000000e+00
      C       N       H     5  1.2000000e+02  4.1840000e+02  0.0000000e+00  0.0000000e+00
      C       N      XC     5  1.2190000e+02  4.1840000e+02  0.0000000e+00  0.0000000e+00
      C      XC      CT     5  1.1110000e+02  5.2718400e+02  0.0000000e+00  0.0000000e+00
      C      XC      H1     5  1.0950000e+02  4.1840000e+02  0.0000000e+00  0.0000000e+00
      C      XC       N     5  1.1010000e+02  5.2718400e+02  0.0000000e+00  0.0000000e+00
     CT      CT      CT     5  1.0950000e+02  3.3472000e+02  0.0000000e+00  0.0000000e+00
     CT      CT      CX     5  1.0950000e+02  3.3472000e+02  0.0000000e+00  0.0000000e+00
     CT      CT      H1     5  1.0950000e+02  4.1840000e+02  0.0000000e+00  0.0000000e+00
     CT      CT      HC     5  1.0950000e+02  4.1840000e+02  0.0000000e+00  0.0000000e+00
     CT      CT       N     5  1.0970000e+02  6.6944000e+02  0.0000000e+00  0.0000000e+00
     CT      CT      XC     5  1.0950000e+02  3.3472000e+02  0.0000000e+00  0.0000000e+00
     CT      CX      H1     5  1.0950000e+02  4.1840000e+02  0.0000000e+00  0.0000000e+00
     CT      CX       N     5  1.0970000e+02  6.6944000e+02  0.0000000e+00  0.0000000e+00
     CT       N      CX     5  1.1800000e+02  4.1840000e+02  0.0000000e+00  0.0000000e+00
     CT       N      XC     5  1.1800000e+02  4.1840000e+02  0.0000000e+00  0.0000000e+00
     CT      XC      H1     5  1.0950000e+02  4.1840000e+02  0.0000000e+00  0.0000000e+00
     CT      XC       N     5  1.0970000e+02  6.6944000e+02  0.0000000e+00  0.0000000e+00
     CX       C       N     5  1.1660000e+02  5.8576000e+02  0.0000000e+00  0.0000000e+00
     CX       C       O     5  1.2040000e+02  6.6944000e+02  0.0000000e+00  0.0000000e+00
     CX       C      O2     5  1.1700000e+02  5.8576000e+02  0.0000000e+00  0.0000000e+00
     CX      CT      HC     5  1.0950000e+02  4.1840000e+02  0.0000000e+00  0.0000000e+00
     CX      N3       H     5  1.0950000e+02  4.1840000e+02  0.0000000e+00  0.0000000e+00
      H      N3       H     5  1.0950000e+02  2.9288000e+02  0.0000000e+00  0.0000000e+00
     H1      CT      H1     5  1.0950000e+02  2.9288000e+02  0.0000000e+00  0.0000000e+00
     H1      CT       N     5  1.0950000e+02  4.1840000e+02  0.0000000e+00  0.0000000e+00
     H1      CX       N     5  1.0950000e+02  4.1840000e+02  0.0000000e+00  0.0000000e+00
     H1      XC      H1     5  1.0950000e+02  2.9288000e+02  0.0000000e+00  0.0000000e+00
     H1      XC       N     5  1.0950000e+02  4.1840000e+02  0.0000000e+00  0.0000000e+00
     HC      CT      HC     5  1.0950000e+02  2.9288000e+02  0.0000000e+00  0.0000000e+00
     HP      CX      HP     5  1.0950000e+02  2.9288000e+02  0.0000000e+00  0.0000000e+00
     HP      CX      N3     5  1.0950000e+02  4.1840000e+02  0.0000000e+00  0.0000000e+00
      N       C       O     5  1.2290000e+02  6.6944000e+02  0.0000000e+00  0.0000000e+00
     O2       C      O2     5  1.2600000e+02  6.6944000e+02  0.0000000e+00  0.0000000e+00
     XC       C       N     5  1.1660000e+02  5.8576000e+02  0.0000000e+00  0.0000000e+00
     XC       C       O     5  1.2040000e+02  6.6944000e+02  0.0000000e+00  0.0000000e+00
     XC      CT      HC     5  1.0950000e+02  4.1840000e+02  0.0000000e+00  0.0000000e+00
     XC       N       H     5  1.1804000e+02  4.1840000e+02  0.0000000e+00  0.0000000e+00

[ dihedraltypes ]
; i	j	k	l	func	phi0	Kphi	mult
      C       N      CX       C     9  0.000000e+00  0.000000e+00      4
      C       N      CX       C     9  0.000000e+00  1.757280e+00      3
      C       N      CX       C     9  0.000000e+00  1.129680e+00      2
      C       N      CX       C     9  0.000000e+00  0.000000e+00      1
      C       N      XC       C     9  0.000000e+00  0.000000e+00      4
      C       N      XC       C     9  0.000000e+00  0.000000e+00      3
      C       N      XC       C     9  0.000000e+00  0.000000e+00      2
      C       N      XC       C     9  0.000000e+00  0.000000e+00      1
     CT      CT       N       C     9  0.000000e+00  0.000000e+00      4
     CT      CT       N       C     9  0.000000e+00  1.673600e+00      3
     CT      CT       N       C     9  0.000000e+00  8.368000e+00      2
     CT      CT       N       C     9  0.000000e+00  8.368000e+00      1
     CT      CX       N       C     9  0.000000e+00  0.000000e+00      4
     CT      CX       N       C     9  0.000000e+00  3.347200e+00      3
     CT      CX       N       C     9  0.000000e+00  7.531200e+00      2
     CT      CX       N       C     9  0.000000e+00  8.368000e+00      1
     CT      XC       C       N     9  0.000000e+00  0.000000e+00      4
     CT      XC       C       N     9  0.000000e+00  0.000000e+00      3
     CT      XC       C       N     9  0.000000e+00  0.000000e+00      2
     CT      XC       C       N     9  0.000000e+00  0.000000e+00      1
     CT      XC       N       C     9  0.000000e+00  0.000000e+00      4
     CT      XC       N       C     9  0.000000e+00  0.000000e+00      3
     CT      XC       N       C     9  0.000000e+00  0.000000e+00      2
     CT      XC       N       C     9  0.000000e+00  0.000000e+00      1
     CX      CT      CT      CT     9  0.000000e+00  7.531200e-01      3
     CX      CT      CT      CT     9  1.800000e+02  1.046000e+00      2
     CX      CT      CT      CT     9  1.800000e+02  8.368000e-01      1
      H       N       C       O     9  1.800000e+02  1.046000e+01      2
      H       N       C       O     9  0.000000e+00  8.368000e+00      1
     H1      XC       C       O     9  0.000000e+00  0.000000e+00      1
     H1      XC       C       O     9  0.000000e+00  0.000000e+00      2
     H1      XC       C       O     9  1.800000e+02  0.000000e+00      3
     HC      CT      CT      CT     9  0.000000e+00  6.694400e-01      3
     HC      CT      CT      CX     9  0.000000e+00  6.694400e-01      3
     HC      CT      CT      HC     9  0.000000e+00  6.276000e-01      3
     HC      CT      CT      XC     9  0.000000e+00  6.694400e-01      3
      N      XC       C       N     9  0.000000e+00  0.000000e+00      4
      N      XC       C       N     9  1.800000e+02  0.000000e+00      3
      N      XC       C       N     9  1.800000e+02  0.000000e+00      2
      N      XC       C       N     9  1.800000e+02  0.000000e+00      1
     XC      CT      CT      CT     9  0.000000e+00  7.531200e-01      3
     XC      CT      CT      CT     9  1.800000e+02  1.046000e+00      2
     XC      CT      CT      CT     9  1.800000e+02  8.368000e-01      1
      X       C      CX       X     9  0.000000e+00  0.000000e+00      2
      X       C       N       X     9  1.800000e+02  1.046000e+01      2
      X       C      XC       X     9  0.000000e+00  0.000000e+00      2
      X      CT      CT       X     9  0.000000e+00  6.508444e-01      3
      X      CT      CX       X     9  0.000000e+00  6.508444e-01      3
      X      CT       N       X     9  0.000000e+00  0.000000e+00      2
      X      CT      XC       X     9  0.000000e+00  6.508444e-01      3
      X      CX       N       X     9  0.000000e+00  0.000000e+00      2
      X      CX      N3       X     9  0.000000e+00  6.508444e-01      3
      X      XC       N       X     9  0.000000e+00  0.000000e+00      2

[ dihedraltypes ]
; i	j	k	l	func	q0	Kq
      C      XC       N       H     4  1.800000e+02  4.602400e+00      2
      X      CT       N      CX     4  1.800000e+02  4.184000e+00      2
      X      CT       N      XC     4  1.800000e+02  4.184000e+00      2
      X      O2       C      O2     4  1.800000e+02  4.393200e+01      2
      X       X       C       O     4  1.800000e+02  4.393200e+01      2

[ cmaptypes ]
; i j k l m
C N XC0 C N 1 24 24\
-36.641422 -36.424523 -36.481258 -33.743876 -34.930333 -36.231013 -36.034909 -37.502991 -36.502262 -36.527450\
-33.480619 -36.359839 -34.672515 -36.205156 -36.915516 -34.243864 -35.216100 -36.825518 -36.404733 -35.691738\
-36.625774 -37.096934 -35.585297 -33.517271 -36.701504 -36.565650 -36.244360 -37.265926 -37.945700 -36.145032\
-32.695910 -29.971707 -27.637077 -27.307378 -30.039112 -33.613461 -36.133066 -37.425043 -36.872630 -36.143861\
-32.905988 -29.017714 -29.764056 -29.383186 -30.604579 -30.735078 -30.032710 -32.870341 -21.867550 -21.549148\
-20.868955 -21.495467 -22.319590 -20.198009 -17.598824 -14.277858 -12.492587 -12.842370 -15.576404 -19.723585\
-22.590588 -22.824640 -21.917047 -20.226544 -20.285747 -20.248259 -20.976819 -21.259783 -22.153360 -22.568245\
-22.685690 -22.364317 -11.026012 -10.942457 -9.335885 -8.775020 -9.833739 -7.575341 -4.795282 -1.799748\
-0.461453 -1.825981 -5.435016 -9.944448 -12.837056 -12.915297 -11.929923 -10.332179 -8.752677 -8.402685\
-8.920288 -9.312956 -10.282473 -11.398304 -12.188243 -11.707920 -5.465559 -4.060028 -2.826418 -2.026688\
-1.978948 0.407689 3.795306 7.023095 7.483879 4.958417 0.437856 -3.992749 -7.428985 -8.478541\
-7.536597 -5.450999 -2.548056 -2.267268 -2.196349 -2.624791 -3.649578 -4.871389 -5.871198 -5.558946\
-1.206582 -1.225326 -0.232003 0.057488 0.787973 3.710580 7.870522 11.393074 11.062161 7.572036\
3.214902 -0.994620 -5.475433 -6.531684 -4.418053 -2.655250 -1.169679 -0.520155 0.347272 0.370200\
0.102131 -0.984746 -2.199571 -1.813973 -0.422877 -0.457102 0.747304 1.961208 3.279670 6.392817\
9.928297 13.368842 12.319704 8.918029 4.366255 -0.580446 -4.030071 -3.433349 -1.394192 -1.283191\
-0.324260 1.025457 2.560734 3.244525 2.547345 0.677641 0.126566 -0.249366 2.269402 3.072060\
5.087075 8.270220 11.974441 14.082131 12.950359 12.124646 11.100403 8.155076 3.657946 0.422207\
1.234782 2.913905 3.247161 3.920157 5.031386 5.070590 5.179457 4.868921 3.738822 1.376494\
0.122340 0.661741 3.896015 7.942529 12.248200 16.356051 19.498612 20.052448 18.023584 14.458816\
11.190610 7.436642 4.307679 3.577320 4.714740 5.857809 6.921508 8.409045 10.435356 11.612818\
11.407802 9.620020 5.447945 1.204448 0.000000 1.000143 7.170204 13.266167 18.721685 22.376827\
23.722360 23.490733 19.533924 14.661949 10.318079 7.957299 8.176540 7.983323 7.361581 7.737513\
8.706569 10.816979 14.521618 16.967208 17.048001 12.319746 5.756515 0.764124 0.597224 3.025911\
12.265563 19.483382 24.335734 24.153019 23.888674 22.888070 18.035006 13.175793 9.926833 10.638238\
12.125483 9.585377 7.808348 7.133427 8.547786 12.211548 17.256657 21.104891 18.600056 11.491816\
4.598802 1.035875 2.599603 6.732851 17.940615 24.033733 24.253435 21.623038 21.146480 18.773399\
14.139075 10.853505 10.643301 14.761194 12.973956 8.468583 5.457777 6.314995 7.141921 13.422439\
19.972910 20.991839 14.720484 7.569484 3.052646 3.557739 6.751093 11.767416 21.339320 21.405553\
18.016220 16.418560 14.138447 11.052036 10.155949 10.592716 14.171710 15.681548 9.039239 3.377199\
5.095108 1.052067 7.264596 14.190580 18.948332 14.474925 9.016897 5.000089 4.849172 7.951399\
11.683025 16.249275 18.627001 15.482013 10.949779 7.627390 5.000968 6.156003 8.563351 12.491750\
16.217770 11.069692 3.314356 5.414807 2.392620 1.877110 7.663582 12.946007 10.840577 6.353613\
3.824218 4.427049 7.067822 10.203856 13.313697 16.770560 11.387300 5.907139 0.176021 -3.397659\
-3.870367 0.368108 6.062909 10.987393 10.052395 3.661209 -2.885663 -5.712290 -4.035217 -0.450533\
4.164210 2.983527 -1.035456 -2.651192 -1.862842 1.368586 3.368246 5.559741 9.016646 13.733478\
-3.368580 -10.032270 -16.043799 -18.134711 -14.562496 -7.340619 -0.836089 2.519061 0.274094 -4.499097\
-9.046185 -10.390085 -10.071516 -8.587534 -9.062921 -13.371478 -14.175769 -12.943204 -9.202666 -5.466061\
-2.649978 1.197335 5.503006 2.465924 -22.987691 -28.879349 -32.863019 -32.272364 -26.582835 -18.814528\
-12.945756 -10.509120 -11.432236 -14.945876 -18.200944 -21.104473 -23.027690 -24.519160 -27.794354 -28.451367\
-26.769860 -23.263458 -18.854694 -14.600152 -11.114378 -8.783722 -10.840911 -16.517721 -20.724314 -24.349457\
-21.803870 -24.034737 -23.285634 -21.407520 -21.802991 -27.968325 -28.255891 -30.731773 -34.077634 -37.729722\
-40.220123 -34.250433 -34.391643 -39.790635 -36.379294 -34.042447 -31.377322 -28.316057 -24.240213 -27.745108\
-31.335859 -37.206513 -37.271825 -35.518269 -35.242376 -37.208689 -34.084119 -35.008909 -33.718814 -37.544455\
-33.814335 -35.151960 -37.183710 -35.316893 -37.528179 -37.021622 -33.734504 -33.648607 -35.089493 -34.583438\
-34.177715 -33.790151 -34.265914 -35.911272 -37.548178 -34.624985 -35.918259 -37.018066 -35.243506 -36.840664\
-34.716405 -37.444582 -33.974708 -35.010792 -30.768592 -30.648720 -32.613569 -30.501360 -31.621082 -29.975808\
-29.562219 -33.212969 -31.047372 -30.529644 -30.381279 -30.787211 -31.942664 -29.978318 -29.920119 -32.628464\
-30.036350 -30.101830 -31.514808 -33.059039 -30.865452 -29.945599 -33.074353 -30.529184 -31.824676 -33.296900\
-29.622176 -29.311221 -30.316678 -32.440393 -31.406401 -30.644620 -27.643688 -25.335668 -27.497164 -26.626892\
-28.651572 -25.104293 -26.207823 -26.689694 -29.186120 -28.446807 -28.494923 -26.729275 -28.269824 -27.227171\
-26.549781 -29.200345 -28.046816 -27.746405 -25.206299 -25.107138 -26.889940 -25.471146 -26.369032 -25.454828\
-20.884645 -17.174274 -18.577169 -18.947453 -17.748319 -18.355417 -20.477124 -17.272598 3.045324 1.843261\
1.067966 2.385508 2.121916 1.336160 0.112340 3.223981 8.654813 8.171980 9.763992 13.728332\
13.192780 17.606481 19.715636 17.029089 37.651607 34.259638 38.850741 35.441618 32.681015 31.584388\
32.923687 35.749979 35.868804 35.610233 33.727015 34.508586 34.545824 34.921128 35.145391 35.095601\
36.368374 35.304383 36.389294 37.245759 37.553283 37.626084 36.299756 35.680943 34.837030 36.208545\
37.461653 34.549589 36.022776 34.553355 35.431158 33.989770

C N XC1 C N 1 24 24\
3.446193 4.594743 4.732355 5.801451 8.844014 15.196037 21.791736 18.944817 17.776017 14.313464\
10.758110 9.270112 17.851413 9.270112 10.758110 14.313882 17.776059 18.944817 17.953837 15.195619\
8.524105 5.524386 4.719426 4.594618 4.266676 3.755851 3.744011 5.084606 8.246455 15.504649\
18.361693 19.466311 18.574784 16.307307 17.654555 12.226443 7.669272 6.758332 8.928949 13.107342\
16.874239 18.319058 17.635560 14.818138 8.990203 6.051989 5.036992 4.529766 3.945261 3.332640\
3.486444 5.193850 8.621258 14.388065 17.463388 18.957746 18.539932 16.888339 15.557660 8.492056\
5.391628 5.097493 7.918764 11.949211 20.095375 17.719114 17.100761 14.638059 9.113212 6.406290\
5.129919 4.473073 4.440228 3.783382 3.980197 5.687102 7.568856 13.343445 16.110701 17.885345\
17.468828 15.411973 11.346715 8.235074 3.684054 4.271195 6.660468 10.580625 14.550571 16.871729\
16.182833 14.205015 9.370863 6.985983 5.565515 4.881849 4.525289 4.267889 4.623027 5.422673\
7.500657 12.076363 15.204740 16.959802 16.637969 14.033764 9.380821 4.961220 3.107331 2.823991\
5.486144 9.383792 13.468505 15.446742 19.955546 16.759891 9.822526 7.431704 5.642082 4.721602\
4.575622 3.192183 2.686965 4.214669 7.267943 10.492928 14.291331 18.654238 16.104634 13.020315\
8.277584 4.944526 1.414318 1.806484 5.170462 9.118902 12.235188 14.162714 14.189534 12.977806\
14.025940 9.007399 6.078808 5.377946 2.584206 0.989098 0.654796 2.755457 6.548880 10.249419\
13.291271 15.817319 17.665517 11.713234 6.969665 2.472075 0.651825 1.823973 6.361354 9.516466\
11.588801 13.259556 13.073117 12.245480 10.285276 7.904706 5.708775 3.979863 -0.010167 -0.604086\
0.289993 3.520083 7.946295 12.216360 14.483753 15.092608 15.788993 9.151412 6.396081 0.869310\
0.928304 4.604450 8.742886 12.087283 14.488020 15.327122 14.237315 12.642876 9.333416 5.542796\
2.609812 1.052443 -1.040226 0.246270 3.093440 8.293399 13.604987 16.998964 17.633342 16.323039\
12.146152 7.128448 3.098545 2.207269 4.725535 8.819956 11.633863 15.312645 18.006974 19.182636\
18.213705 15.283985 9.757255 3.400881 0.000000 -1.248296 1.856817 5.563925 10.029425 16.007064\
21.022885 22.696108 20.904896 16.761522 11.082830 6.855358 5.757602 7.173384 9.560566 11.085466\
13.587414 17.458409 21.642368 24.059715 23.366636 17.652798 9.227394 2.713031 0.086400 -0.359531\
9.017775 14.245600 18.911387 24.277283 25.632314 25.135213 21.448481 19.170962 11.721643 10.700036\
12.033142 12.363804 11.364957 10.890073 15.259927 18.993854 24.702629 28.539399 25.733441 17.489580\
9.004010 4.050405 3.399709 5.008415 17.615100 21.739353 22.817695 22.016877 21.880521 20.575740\
18.606164 16.465588 15.649750 17.209712 16.426175 12.309746 8.840583 10.136409 13.076506 20.221900\
26.915337 25.926993 21.483292 15.273776 10.069340 8.666110 9.616506 12.692206 22.337414 19.051342\
16.202749 16.195051 15.152314 16.194967 18.043500 19.996717 22.473812 21.793368 15.272688 9.153044\
9.205930 9.150408 15.272688 21.815585 21.926880 19.997135 18.043500 16.215218 15.201518 21.756047\
16.256095 18.972976 17.604054 12.654508 9.616506 8.666528 10.069382 15.274194 21.472455 25.927411\
26.915337 20.223406 13.078640 12.412547 8.829453 12.269203 16.426133 17.209712 15.651591 16.466174\
18.606164 20.588125 23.139947 21.941565 22.393145 21.740273 9.023549 5.008415 3.399709 4.050363\
9.004428 17.449874 25.733023 28.539399 24.702629 19.002766 15.218380 10.889571 11.374330 12.363804\
12.032724 10.700036 11.745199 16.288061 21.448481 25.135213 25.621644 24.276823 20.999412 14.254009\
1.901628 -0.364008 0.086400 2.713031 9.227394 17.652798 23.366636 24.059715 21.642368 17.438410\
13.587414 11.065006 9.560566 7.221291 5.757602 6.855358 11.068270 16.778091 20.937782 22.681087\
21.022885 15.924011 10.028253 5.563925 -1.040226 -1.248296 0.000000 3.400881 9.757674 15.265198\
18.213705 19.204895 18.006974 15.313063 11.633863 8.819956 7.719229 2.207227 3.098963 6.766197\
12.146152 16.297349 17.633342 16.998964 13.604945 8.293399 3.093901 0.310746 -0.010167 1.052443\
2.679559 7.656176 9.336303 12.637270 14.237315 15.327122 14.488020 12.087283 8.742886 4.604450\
0.927635 0.872866 6.397210 9.146015 13.571892 15.092608 14.483753 12.215941 7.932446 3.551714\
0.295641 -0.605006 2.584206 3.933253 5.708817 7.904706 10.279711 12.245480 13.073703 13.259556\
11.588801 9.513454 6.361354 1.843010 0.651825 2.472075 6.969665 11.693318 17.806644 15.817319\
13.291271 10.252599 6.548462 2.755373 0.654796 0.992403 4.575622 5.378490 6.078808 9.007357\
11.199857 12.977806 14.189534 14.162714 12.206025 9.118902 5.170671 1.806233 1.413899 4.219313\
8.258505 13.020315 16.104634 18.677041 14.291331 10.492928 7.267943 4.214669 2.686965 3.192183\
4.062413 4.671018 5.591498 7.431746 9.642656 13.462564 15.527996 15.446742 13.468505 9.383750\
5.486144 2.813238 3.107540 4.961304 9.380821 14.033764 16.637969 16.959802 15.199049 12.076363\
7.500657 5.174771 4.200359 4.420689 4.102161 4.883063 5.566310 6.985983 9.370863 14.205015\
16.182833 16.871687 14.543166 10.580625 6.660635 4.271195 3.684054 6.130313 11.347134 15.411973\
17.466945 17.885387 16.116894 13.343445 7.568856 5.687102 3.979361 3.807356 3.858861 4.473073\
5.129919 6.406290 9.113170 14.638059 17.100343 17.713299 15.942379 11.949211 7.918387 5.097493\
5.391628 8.495989 14.127862 16.889176 18.538425 18.957746 17.463388 14.388065 8.621258 5.193850\
3.491130 3.332640 4.266676 4.529766 5.037285 6.052030 8.990161 14.818138 17.678530 18.319058\
16.874239 13.107342 8.928949 6.758332 7.669272 12.226443 17.192014 16.307307 18.574784 19.466311\
18.361735 15.504649 8.246455 5.084188 3.742253 3.755851

