;;
;; Generated by CHARMM-GUI FF-Converter
;;
;; Correspondance:
;; jul316@lehigh.edu or wonpil@lehigh.edu
;;
;; GROMACS topology file for T4D
;;


[ moleculetype ]
; name	nrexcl
T4D	     1

[ atoms ]
; nr	type	resnr	residu	atom	cgnr	charge	mass
     1         OW      1      T4D      O      1     0.000000    16.0000   ; qtot  0.000
     2         HW      1      T4D     H1      2     0.580000     1.0080   ; qtot  0.580
     3         HW      1      T4D     H2      3     0.580000     1.0080   ; qtot  1.160
     4         EP      1      T4D    EPW      4    -1.160000     0.0000   ; qtot  0.000

[ settles ]
; OW	funct	doh	dhh
    1     1  9.572000e-02  1.513600e-01

[ virtual_sites3 ]
; Vsite	from			func	a	b
    4     1     2     3     1  1.319378e-01  1.319378e-01

[ exclusions ]
    1     2     3     4
    2     1     3     4
    3     1     2     4
    4     1     2     3
